TITLE ="        GENERIC TECFORM 4.0 INPUT FILE"
VARIABLES ="X", "Y", "Z"
ZONE T="INSBC",N=    1000 E=    1996 ET=QUADRILATERAL F=FEPOINT
  4.812783100000000E-003  0.824689290000000       0.565565570000000     
 -3.420113100000000E-002  0.756020620000000       0.653653650000000     
  7.966348400000001E-002  0.754323440000000       0.651651650000000     
 -0.670835770000000       0.462673620000000       0.579579580000000     
 -0.609236370000000       0.430952740000000       0.665665670000000     
 -0.600921460000000       0.552537370000000       0.577577580000000     
 -0.855478130000000       0.432168340000000       0.285285290000000     
 -0.908830350000000       0.376725650000000       0.179179180000000     
 -0.900124270000000       0.327478730000000       0.287287290000000     
 -0.537953790000000       0.519765590000000       0.663663660000000     
 -0.519180120000000       0.631794870000000       0.575575580000000     
 -0.454010990000000       0.596722600000000       0.661661660000000     
 -0.339669430000000       0.810333220000000       0.477477480000000     
 -0.219981350000000       0.791958780000000       0.569569570000000     
 -0.232411240000000       0.848473980000000       0.475475480000000     
 -0.442133330000000       0.812766510000000       0.379379380000000     
 -0.441094150000000       0.758640480000000       0.479479480000000     
  0.978177900000000       6.543141800000001E-002 -0.197197200000000     
  0.996020340000000      -2.573945900000000E-003 -8.908908900000000E-002
  0.978766890000000      -4.832232800000000E-002 -0.199199200000000     
  0.989993310000000       0.111036390000000      -8.708708699999999E-002
  0.686831690000000       0.473342490000000       0.551551550000000     
  0.614942160000000       0.561626740000000       0.553553550000000     
  0.577392740000000       0.504889720000000       0.641641640000000     
  0.881156210000000       0.403029190000000       0.247247250000000     
  0.830755580000000       0.430100650000000       0.353353350000000     
  0.877529190000000       0.326335330000000       0.351351350000000     
  0.910491630000000      -0.233433260000000       0.341341340000000     
  0.845623440000000      -0.300084090000000       0.441441440000000     
  0.876293240000000      -0.341992650000000       0.339339340000000     
  0.875858670000000      -0.190340500000000       0.443443440000000     
  0.995130420000000       9.584042500000001E-002  2.302302300000000E-002
  0.999619600000000      -1.785400000000000E-002  2.102102100000000E-002
  0.991207980000000      -1.764542900000000E-002  0.131131130000000     
  0.986433010000000       9.604939799999999E-002  0.133133130000000     
  0.931762200000000       0.105683580000000       0.347347350000000     
  0.893578390000000       3.617242700000000E-002  0.447447450000000     
  0.938442090000000      -7.939564400000000E-003  0.345345350000000     
  0.880744390000000       0.149279990000000       0.449449450000000     
  0.556750830000000       0.778678510000000      -0.289289290000000     
  0.547301440000000       0.738716980000000      -0.393393390000000     
  0.452383980000000       0.801349810000000      -0.391391390000000     
  0.644796720000000       0.706672890000000      -0.291291290000000     
 -7.677612300000000E-002  0.745861430000000      -0.661661660000000     
 -4.290974500000000E-002  0.816622010000000      -0.575575580000000     
  3.682892600000000E-002  0.747123930000000      -0.663663660000000     
  6.674391100000000E-003  0.670652400000000      -0.741741740000000     
  4.247551900000000E-002  0.680267960000000       0.731731730000000     
  0.209049680000000      -0.396550050000000       0.893893890000000     
  0.300019540000000      -0.327656560000000       0.895895900000000     
  0.176206440000000      -0.298703390000000       0.937937940000000     
  0.103628090000000      -0.440215940000000       0.891891890000000     
  0.182034400000000      -0.514675850000000       0.837837840000000     
  0.609537830000000       8.862302200000000E-002  0.787787790000000     
  0.617993010000000      -2.500670500000000E-002  0.785785790000000     
  0.700243200000000       1.649827000000000E-002  0.713713710000000     
  0.686273010000000       0.129539090000000       0.715715720000000     
 -0.729528960000000      -0.247397930000000      -0.637637640000000     
 -0.686730680000000      -0.352658910000000      -0.635635640000000     
 -0.768579830000000      -0.330872680000000      -0.547547550000000     
 -0.805088220000000      -0.223222440000000      -0.549549550000000     
 -0.577570400000000      -0.610856120000000      -0.541541540000000     
 -0.653743750000000      -0.526478420000000      -0.543543540000000     
 -0.557431170000000      -0.538806060000000      -0.631631630000000     
 -0.717812590000000      -0.432579640000000      -0.545545550000000     
 -0.736233890000000      -0.663900810000000      -0.131131130000000     
 -0.655510620000000      -0.744064180000000      -0.129129130000000     
 -0.743089880000000      -0.668861380000000      -2.102102100000000E-002
 -0.656380380000000      -0.327414620000000       0.679679680000000     
 -0.695979620000000      -0.401096320000000       0.595595600000000     
 -0.596195780000000      -0.424099850000000       0.681681680000000     
 -0.631046820000000      -0.494628160000000       0.597597600000000     
 -0.553514940000000      -0.578015170000000       0.599599600000000     
 -0.521729640000000      -0.510269340000000       0.683683680000000     
 -0.682914610000000      -0.527344110000000       0.505505510000000     
  0.717036650000000      -0.658958450000000       0.227227230000000     
  0.788651640000000      -0.570510790000000       0.229229230000000     
  0.699477910000000      -0.632154680000000       0.333333330000000     
  0.326724370000000       0.822552790000000       0.465465470000000     
  0.218123380000000       0.856677510000000       0.467467470000000     
  0.230007400000000       0.794824010000000       0.561561560000000     
  0.300253590000000       0.700285880000000       0.647647650000000     
  0.264485110000000       0.632819080000000       0.727727730000000     
  0.366534000000000       0.582215600000000       0.725725730000000     
  0.691941000000000       0.558525140000000       0.457457460000000     
  0.614159740000000       0.641642280000000       0.459459460000000     
  0.758462190000000       0.466149580000000       0.455455460000000     
  0.495104740000000       0.583604450000000       0.643643640000000     
  0.458828690000000       0.515461160000000       0.723723720000000     
 -0.108718760000000       0.816117200000000       0.567567570000000     
 -0.121125150000000       0.872440010000000       0.473473470000000     
 -7.677443300000000E-003  0.881847890000000       0.471471470000000     
 -0.827072880000000       0.405371870000000       0.389389390000000     
 -0.798733460000000       0.530825240000000       0.283283280000000     
 -0.730697730000000       0.622062430000000       0.281281280000000     
 -0.798800690000000       0.575526820000000       0.175175180000000     
 -0.859573720000000       0.479313330000000       0.177177180000000     
 -0.909242080000000       0.410497620000000       6.906906900000000E-002
 -0.803793270000000      -7.937561600000000E-002  0.589589590000000     
 -0.739027830000000       1.283313000000000E-003  0.673673670000000     
 -0.808429450000000       3.438966300000000E-002  0.587587590000000     
 -0.731877970000000       0.114942620000000       0.671671670000000     
 -0.666168970000000       0.332323320000000       0.667667670000000     
 -0.693857510000000       0.531851100000000       0.485485490000000     
 -0.538144880000000       0.751630440000000       0.381381380000000     
 -0.619707250000000       0.618228640000000       0.483483480000000     
 -0.427219430000000       0.698925540000000       0.573573570000000     
 -0.359378290000000       0.660073010000000       0.659659660000000     
 -2.480227600000000E-002  0.997825830000000      -6.106106100000000E-002
 -6.213254300000000E-003  0.998777050000000       4.904904900000000E-002
  8.890804099999999E-002  0.994041450000000      -6.306306300000000E-002
 -1.441416900000000E-003  0.985240250000000      -0.171171170000000     
 -0.515269350000000       0.813628630000000      -0.269269270000000     
 -0.607927800000000       0.747657680000000      -0.267267270000000     
 -0.539705610000000       0.826283810000000      -0.161161160000000     
 -0.631398470000000       0.758949490000000      -0.159159160000000     
  0.989048150000000      -0.116129950000000      -9.109109100000000E-002
  0.969165540000000      -0.228148700000000      -9.309309300000000E-002
  0.966165350000000      -0.161377160000000      -0.201201200000000     
  0.851297210000000       0.523765350000000       3.103103100000000E-002
  0.895564730000000       0.437481060000000      -8.108108100000000E-002
  0.840015170000000       0.536769050000000      -7.907907900000000E-002
  0.846822230000000       0.497091110000000      -0.189189190000000     
  0.898284150000000       0.395640640000000      -0.191191190000000     
  0.894770040000000       0.331370640000000      -0.299299300000000     
  0.937658690000000       0.288916190000000      -0.193193190000000     
  0.927238600000000       0.222364810000000      -0.301301300000000     
  0.964411620000000       0.178350940000000      -0.195195200000000     
  0.946492510000000       0.110268040000000      -0.303303300000000     
  0.939433640000000       0.332508110000000      -8.308308300000000E-002
  0.647113690000000       0.414855410000000       0.639639640000000     
  0.812647350000000       0.366038590000000       0.453453450000000     
  0.743149480000000       0.209036350000000       0.635635640000000     
  0.791440000000000       0.271688060000000       0.547547550000000     
  0.702761900000000       0.315505880000000       0.637637640000000     
  0.654105400000000       0.238804120000000       0.717717720000000     
  0.827368930000000       0.503324420000000       0.249249250000000     
  0.840430400000000       0.523216900000000       0.141141140000000     
  0.762183400000000       0.596614840000000       0.251251250000000     
  0.837930660000000       4.932170800000000E-002  0.543543540000000     
  0.935405900000000      -0.263970030000000       0.235235240000000     
  0.959372890000000      -0.152715900000000       0.237237240000000     
  0.931313350000000      -0.121535180000000       0.343343340000000     
  0.977747340000000       0.208287990000000       2.502502500000000E-002
  0.970160050000000      -3.942165600000000E-002  0.239239240000000     
  0.487987220000000       0.647269640000000      -0.585585590000000     
  0.565160170000000       0.661103740000000      -0.493493490000000     
  0.572760280000000       0.571564950000000      -0.587587590000000     
  0.474782230000000       0.730080780000000      -0.491491490000000     
  0.393454680000000       0.710368650000000      -0.583583580000000     
  0.783968830000000       0.591906950000000      -0.187187190000000     
  0.792250580000000       0.533984740000000      -0.295295300000000     
  0.627619770000000       0.756661980000000      -0.183183180000000     
  0.119472070000000       0.657701810000000      -0.743743740000000     
 -0.106693330000000       0.664380650000000      -0.739739740000000     
 -0.189793620000000       0.558054590000000      -0.807807810000000     
 -0.217392760000000       0.639127080000000      -0.737737740000000     
 -0.296938190000000       0.692325150000000      -0.657657660000000     
 -0.398477750000000       0.641351030000000      -0.655655660000000     
 -0.371304040000000       0.733296540000000      -0.569569570000000     
 -3.409430600000000E-003  0.392091460000000      -0.919919920000000     
  0.107663610000000       0.372113580000000      -0.921921920000000     
  5.654359200000000E-003  0.286852890000000      -0.957957960000000     
  5.512332800000000E-002  0.486621880000000      -0.871871870000000     
 -7.878467100000000E-002  0.581378580000000      -0.809809810000000     
 -0.169015150000000       0.467160830000000      -0.867867870000000     
  0.164531200000000       0.457464690000000      -0.873873870000000     
 -0.964954330000000      -0.181853220000000       0.189189190000000     
 -0.979895310000000      -6.903716300000000E-002  0.187187190000000     
 -0.986154170000000      -0.145761600000000       7.907907900000000E-002
 -0.962960770000000      -0.257162220000000       8.108108100000000E-002
 -0.945906930000000       0.269134650000000       0.181181180000000     
 -0.932033730000000       0.218231150000000       0.289289290000000     
 -0.544184150000000       0.388212390000000       0.743743740000000     
 -0.386085370000000       0.551110880000000       0.739739740000000     
 -0.288717190000000       0.610233900000000       0.737737740000000     
 -0.323010880000000       0.372814140000000       0.869869870000000     
 -0.221555820000000       0.329149990000000       0.917917920000000     
 -0.230801150000000       0.439927490000000       0.867867870000000     
  0.370420590000000      -0.237840190000000       0.897897900000000     
  0.443459600000000      -0.302111150000000       0.843843840000000     
  0.494455490000000      -0.200146370000000       0.845845850000000     
  0.373889460000000       0.198849600000000       0.905905910000000     
  0.461175950000000       0.241351070000000       0.853853850000000     
  0.394836870000000       0.334087710000000       0.855855860000000     
  0.303718450000000       0.288891560000000       0.907907910000000     
  0.211829760000000       0.356640020000000       0.909909910000000     
  0.104932620000000       0.396744010000000       0.911911910000000     
  0.154757340000000       0.271376600000000       0.949949950000000     
  0.380424480000000       0.471154190000000       0.795795800000000     
  0.155464870000000       0.665826700000000       0.729729730000000     
  0.177842320000000       0.573317010000000       0.799799800000000     
 -9.364912099999999E-003 -0.456079250000000       0.889889890000000     
 -0.122751520000000      -0.443381510000000       0.887887890000000     
 -4.188353300000000E-002 -0.550424300000000       0.833833830000000     
 -0.154545670000000      -0.533077330000000       0.831831830000000     
  0.372062330000000      -0.390988410000000       0.841841840000000     
  7.194123600000001E-002 -0.544245270000000       0.835835840000000     
  0.695698940000000      -9.731094600000000E-002  0.711711710000000     
  0.775107040000000      -1.582900900000000E-002  0.631631630000000     
  0.580285030000000       0.198749510000000       0.789789790000000     
 -0.662310830000000      -0.748987740000000      -1.901901900000000E-002
 -3.838165400000000E-002 -0.791772050000000       0.609609610000000     
 -7.485440600000000E-003 -0.720231230000000       0.693693690000000     
 -0.121076970000000      -0.711971190000000       0.691691690000000     
  7.540546500000000E-002 -0.787556510000000       0.611611610000000     
  0.489796970000000      -0.613327360000000       0.619619620000000     
  0.536380890000000      -0.657186440000000       0.529529530000000     
  0.572299010000000      -0.534846150000000       0.621621620000000     
 -0.431483160000000      -0.835865470000000      -0.339339340000000     
 -0.432054470000000      -0.871166570000000      -0.233233230000000     
 -0.530589030000000      -0.814333880000000      -0.235235240000000     
 -0.907527240000000      -0.227014810000000      -0.353353350000000     
 -0.927620680000000      -0.115075790000000      -0.355355360000000     
 -0.876201810000000      -0.157577660000000      -0.455455460000000     
 -0.826639910000000      -0.111612500000000      -0.551551550000000     
 -0.849965620000000      -0.268213380000000      -0.453453450000000     
 -0.873994390000000      -0.335687420000000      -0.351351350000000     
 -0.933966480000000      -1.525231000000000E-003 -0.357357360000000     
 -0.926459470000000       0.111954050000000      -0.359359360000000     
 -0.885501080000000       6.917249400000000E-002 -0.459459460000000     
 -0.966478590000000      -5.283883000000000E-002 -0.251251250000000     
 -0.965480980000000       6.090370500000000E-002 -0.253253250000000     
 -0.582514690000000       0.662111230000000      -0.471471470000000     
 -0.559140550000000       0.606215670000000      -0.565565570000000     
 -0.663614030000000       0.582421530000000      -0.469469470000000     
 -0.691712930000000       0.620563850000000      -0.369369370000000     
 -0.762956470000000       0.531919770000000      -0.367367370000000     
 -0.766810910000000       0.585400280000000      -0.263263260000000     
 -0.610172060000000       0.699838100000000      -0.371371370000000     
 -0.733796660000000       0.492967170000000      -0.467467470000000     
 -0.638176340000000       0.524525570000000      -0.563563560000000     
 -0.573078410000000       0.496921780000000      -0.651651650000000     
 -0.705245770000000       0.432755140000000      -0.561561560000000     
 -0.759100500000000       0.332655270000000      -0.559559560000000     
 -0.697206300000000       0.307336780000000      -0.647647650000000     
 -0.868379320000000       0.181578270000000      -0.461461460000000     
 -0.905199940000000       0.223676200000000      -0.361361360000000     
 -0.837016630000000       0.290869000000000      -0.463463460000000     
 -0.823463760000000       0.115175770000000      -0.555555560000000     
 -0.628937950000000      -0.450494700000000      -0.633633630000000     
 -0.517193320000000      -0.472359820000000      -0.713713710000000     
 -0.473777830000000      -0.615711860000000      -0.629629630000000     
 -0.809852440000000      -0.374607280000000      -0.451451450000000     
 -0.988730690000000      -4.383672400000000E-002 -0.143143140000000     
 -0.977454720000000      -0.157039640000000      -0.141141140000000     
 -0.998225720000000      -4.954014500000000E-002 -3.303303300000000E-002
 -0.997319750000000       6.423285099999999E-002 -3.503503500000000E-002
 -0.986937280000000       6.991199400000001E-002 -0.145145150000000     
 -0.954121450000000      -0.165912850000000      -0.249249250000000     
 -0.953262070000000      -0.268200900000000      -0.139139140000000     
 -0.777384350000000      -0.580927050000000      -0.241241240000000     
 -0.807238250000000      -0.575014760000000      -0.133133130000000     
 -0.814238680000000      -0.580073540000000      -2.302302300000000E-002
 -0.750108930000000      -0.655285990000000       8.908908900000000E-002
 -0.434758130000000      -0.583798350000000       0.685685690000000     
 -0.464929540000000      -0.649550640000000       0.601601600000000     
 -0.542622800000000      -0.362441280000000       0.757757760000000     
 -0.599418920000000      -0.263685780000000       0.755755760000000     
 -0.357647710000000      -0.432191160000000       0.827827830000000     
 -0.323207880000000      -0.338062050000000       0.883883880000000     
 -0.439708640000000      -0.353083590000000       0.825825830000000     
 -0.606663880000000      -0.611878310000000       0.507507510000000     
 -0.747367610000000      -0.433504180000000       0.503503500000000     
 -0.878104330000000      -0.260402960000000       0.401401400000000     
 -0.891037000000000      -0.341281400000000       0.299299300000000     
 -0.838196530000000      -0.367004460000000       0.403403400000000     
 -0.843487640000000      -0.444686550000000       0.301301300000000     
 -0.896572830000000      -0.398539280000000       0.193193190000000     
 -0.844042070000000      -0.499491560000000       0.195195200000000     
 -0.147033060000000      -0.981932740000000      -0.119119120000000     
 -0.258344870000000      -0.958429760000000      -0.121121120000000     
 -0.218524460000000      -0.948525710000000      -0.229229230000000     
 -0.327555390000000      -0.916100200000000      -0.231231230000000     
  6.200740100000000E-002 -0.992526070000000       0.105105110000000     
 -5.178184100000000E-002 -0.993321900000000       0.103103100000000     
 -4.094108400000000E-002 -0.999136990000000      -7.007007000000000E-003
 -0.632452610000000      -0.711031590000000       0.307307310000000     
 -0.621953300000000      -0.756764280000000       0.201201200000000     
 -0.542639690000000      -0.780941690000000       0.309309310000000     
 -0.558263310000000      -0.720473960000000       0.411411410000000     
  0.639765490000000      -0.470651790000000      -0.607607610000000     
  0.643951390000000      -0.563473360000000      -0.517517520000000     
  0.564880410000000      -0.556135090000000      -0.609609610000000     
  0.713923760000000      -0.473874050000000      -0.515515520000000     
  0.471638030000000      -0.711036470000000      -0.521521520000000     
  0.536629640000000      -0.729891250000000      -0.423423420000000     
  0.440462460000000      -0.790573230000000      -0.425425430000000     
  5.141980400000000E-002 -0.441278310000000      -0.895895900000000     
  2.777005400000000E-002 -0.539009400000000      -0.841841840000000     
 -6.153506100000000E-002 -0.435881640000000      -0.897897900000000     
  0.492411300000000       0.286600780000000      -0.821821820000000     
  0.536755490000000       0.182230200000000      -0.823823820000000     
  0.412920150000000       0.235177270000000      -0.879879880000000     
  0.559422160000000       7.112350700000000E-002 -0.825825830000000     
  0.641193380000000       0.121137230000000      -0.757757760000000     
  0.755316360000000      -0.644443810000000       0.119119120000000     
  0.507006650000000      -0.746197810000000       0.431431430000000     
  0.596343990000000      -0.675654720000000       0.433433430000000     
  0.676072600000000      -0.594408800000000       0.435435440000000     
  0.769999750000000      -0.542817280000000       0.335335340000000     
  0.829229750000000      -0.445624890000000       0.337337340000000     
  0.744907160000000      -0.503747760000000       0.437437440000000     
  0.849450150000000      -0.474306390000000       0.231231230000000     
  0.801732700000000      -0.405114370000000       0.439439440000000     
  0.792848110000000      -0.287132840000000       0.537537540000000     
  0.740498010000000      -0.240304520000000       0.627627630000000     
  0.699022790000000      -0.346352010000000       0.625625630000000     
  0.572414460000000      -0.247303320000000       0.781781780000000     
  0.897953850000000       0.171246440000000      -0.405405410000000     
  0.911382100000000       5.832556000000000E-002 -0.407407410000000     
  0.860363170000000       6.511063700000000E-002 -0.505505510000000     
  0.982918370000000      -0.131137930000000       0.129129130000000     
  0.944416180000000      -0.116791650000000      -0.307307310000000     
  0.895808780000000      -0.168128750000000      -0.411411410000000     
  0.910667930000000      -5.538821900000000E-002 -0.409409410000000     
  0.940537900000000      -0.272207490000000      -0.203203200000000     
  0.902225210000000      -0.379315830000000      -0.205205210000000     
  0.888589550000000      -0.336888530000000      -0.311311310000000     
  0.936629930000000      -0.337166570000000      -9.509509500000000E-002
  0.969853920000000      -0.243092140000000       1.701701700000000E-002
  0.935985920000000      -0.351717090000000       1.501501500000000E-002
  0.768126780000000      -0.632265630000000      -0.101101100000000     
  0.764164970000000      -0.644957930000000       9.009009000000000E-003
  0.690769390000000      -0.715686660000000      -0.103103100000000     
  0.337396130000000       0.757005250000000       0.559559560000000     
  0.438585480000000       0.704820790000000       0.557557560000000     
  0.430044620000000       0.774766570000000       0.463463460000000     
  0.771722470000000       0.527415400000000       0.355355360000000     
  0.531679180000000       0.639277150000000       0.555555560000000     
  0.402043350000000       0.649232500000000       0.645645650000000     
  0.100530490000000       0.497079220000000       0.861861860000000     
 -8.888094500000001E-003  0.405810740000000       0.913913910000000     
  0.106036400000000       0.876558440000000       0.469469470000000     
 -6.222219600000000E-003  0.928463560000000       0.371371370000000     
 -0.856703520000000       0.511430440000000       6.706706699999999E-002
 -0.869970630000000       0.299939790000000       0.391391390000000     
 -0.899519460000000       0.190016770000000       0.393393390000000     
 -0.805513950000000       0.333987010000000       0.489489490000000     
 -0.868610450000000       3.283425100000000E-004  0.495495500000000     
 -0.862247170000000       0.113991150000000       0.493493490000000     
 -0.700865760000000      -0.222576170000000       0.677677680000000     
 -0.638230560000000      -0.156579170000000       0.753753750000000     
 -0.797044940000000       0.147678310000000       0.585585590000000     
 -0.707385180000000       0.226160880000000       0.669669670000000     
 -0.658057280000000       6.954084000000001E-002  0.749749750000000     
 -0.727537730000000       0.363939160000000       0.581581580000000     
 -0.339339780000000       0.861646580000000       0.377377380000000     
 -0.119724010000000       0.919923090000000       0.373373370000000     
 -3.526528200000000E-002  0.962976930000000       0.267267270000000     
 -0.771494430000000       0.504705220000000       0.387387390000000     
 -0.564755930000000       0.777282480000000       0.277277280000000     
 -0.625912400000000       0.679154510000000       0.383383380000000     
 -0.534971200000000       0.694248800000000       0.481481480000000     
 -0.326836440000000       0.752651230000000       0.571571570000000     
 -0.125711910000000       0.484223930000000       0.865865870000000     
 -4.818103400000000E-002  0.592940160000000       0.803803800000000     
 -0.159848040000000       0.570197870000000       0.805805810000000     
 -7.134161000000000E-002  0.675681270000000       0.733733730000000     
  0.112117080000000       0.978489050000000      -0.173173170000000     
 -0.155888630000000       0.804184120000000      -0.573573570000000     
 -6.523375100000001E-002  0.874025250000000      -0.481481480000000     
 -0.177974640000000       0.859316270000000      -0.479479480000000     
  2.610728900000000E-002  0.959854930000000      -0.279279280000000     
 -8.759391800000001E-002  0.956788700000000      -0.277277280000000     
  1.866908900000000E-002  0.923400590000000      -0.383383380000000     
  0.139372610000000       0.949450430000000      -0.281281280000000     
 -0.227107920000000       0.959414990000000      -0.167167170000000     
 -0.336208580000000       0.927191600000000      -0.165165170000000     
 -0.249824490000000       0.966608620000000      -5.705705700000000E-002
 -0.469620170000000       0.676257310000000      -0.567567570000000     
 -0.491833870000000       0.730699880000000      -0.473473470000000     
 -0.491216070000000       0.575711450000000      -0.653653650000000     
 -0.322292460000000       0.595668110000000      -0.735735740000000     
 -0.393071220000000       0.787031190000000      -0.475475480000000     
 -0.287866830000000       0.830149350000000      -0.477477480000000     
 -0.316592700000000       0.870261670000000      -0.377377380000000     
 -2.225759900000000E-002  0.987002010000000       0.159159160000000     
 -0.135663250000000       0.977559490000000       0.161161160000000     
 -0.119765730000000       0.991488760000000       5.105105100000000E-002
 -0.148499900000000       0.951547080000000       0.269269270000000     
 -0.247227450000000       0.955121130000000       0.163163160000000     
 -0.259594760000000       0.926834640000000       0.271271270000000     
 -0.355464630000000       0.919981180000000       0.165165170000000     
 -0.340715990000000       0.938552910000000       5.505505500000000E-002
 -0.207306730000000       0.901717920000000      -0.379379380000000     
 -0.309941920000000       0.910635890000000      -0.273273270000000     
 -0.200135720000000       0.940302730000000      -0.275275280000000     
 -0.415477380000000       0.868211060000000      -0.271271270000000     
 -0.440871540000000       0.882615470000000      -0.163163160000000     
 -0.692164550000000       0.671224690000000      -0.265265270000000     
 -0.559718420000000       0.827108870000000      -5.105105100000000E-002
 -0.650221150000000       0.758160040000000      -4.904904900000000E-002
 -0.445242520000000       0.893590280000000       5.705705700000000E-002
 -0.543972180000000       0.837022280000000       5.905905900000000E-002
 -0.458931970000000       0.872603340000000       0.167167170000000     
 -0.727328100000000       0.664081990000000       0.173173170000000     
  0.786200140000000       0.617088450000000       3.303303300000000E-002
  0.645764420000000       0.580923860000000      -0.495495500000000     
  0.646084350000000       0.484725820000000      -0.589589590000000     
  0.537236290000000       0.507484930000000      -0.673673670000000     
  0.607233020000000       0.418007710000000      -0.675675680000000     
  0.715201370000000       0.490900430000000      -0.497497500000000     
  0.752746540000000       0.284638880000000      -0.593593590000000     
  0.702110530000000       0.212311880000000      -0.679679680000000     
  0.662643630000000       0.318835980000000      -0.677677680000000     
  0.783913540000000       0.175343820000000      -0.595595600000000     
  0.849557220000000       0.435737130000000      -0.297297300000000     
  0.604546720000000       0.341360210000000       0.719719720000000     